 Output coordinates in angstroms (scale by  1.889725989 to convert to a.u.)

  No.       Tag          Charge          X              Y              Z
 ---- ---------------- ---------- -------------- -------------- --------------
    1 C                    6.0000    -1.04911469    -2.26101390    -0.00067009
    2 C                    6.0000     0.31161531    -2.26101390    -0.00067009
    3 C                    6.0000     1.20034031    -1.15892690    -0.00067009
    4 C                    6.0000    -1.95391369    -1.17209390     0.00013491
    5 C                    6.0000     0.89300431     0.16234610    -0.00040009
    6 C                    6.0000    -1.69308469     0.16255310     0.00102291
    7 C                    6.0000    -0.44090169     0.81335710     0.00068991
    8 H                    1.0000    -1.53979269    -3.25662890    -0.00124909
    9 H                    1.0000     0.80963131    -3.25115490    -0.00100809
   10 H                    1.0000     2.27760031    -1.42431490    -0.00108309
   11 H                    1.0000    -3.02225869    -1.46780690     0.00023591
   12 H                    1.0000    -2.56602269     0.84771610     0.00190391
   13 C                    6.0000     1.86449731     1.24891410    -0.00073809
   14 H                    1.0000     2.94133331     1.09567810    -0.00173309
   15 C                    6.0000     1.18453131     2.45058310     0.00024991
   16 H                    1.0000     1.62137231     3.44837910     0.00030591
   17 C                    6.0000    -0.23637969     2.19009310     0.00114291
   18 H                    1.0000    -1.00542769     2.95934410     0.00207491

         Total DFT energy =     -385.652111509420

                       DFT Final Molecular Orbital Analysis
                       ------------------------------------

 Vector   10  Occ=2.000000D+00  E=-1.053352D+01

 Vector   11  Occ=2.000000D+00  E=-9.729291D-01

 Vector   12  Occ=2.000000D+00  E=-9.214145D-01

 Vector   13  Occ=2.000000D+00  E=-8.841922D-01

 Vector   14  Occ=2.000000D+00  E=-8.287770D-01

 Vector   15  Occ=2.000000D+00  E=-7.885104D-01

 Vector   16  Occ=2.000000D+00  E=-7.287966D-01

 Vector   17  Occ=2.000000D+00  E=-6.954930D-01

 Vector   18  Occ=2.000000D+00  E=-6.246589D-01

 Vector   19  Occ=2.000000D+00  E=-6.160689D-01

 Vector   20  Occ=2.000000D+00  E=-5.822699D-01

 Vector   21  Occ=2.000000D+00  E=-5.637653D-01

 Vector   22  Occ=2.000000D+00  E=-5.183914D-01

 Vector   23  Occ=2.000000D+00  E=-5.156075D-01

 Vector   24  Occ=2.000000D+00  E=-4.646293D-01

 Vector   25  Occ=2.000000D+00  E=-4.550368D-01

 Vector   26  Occ=2.000000D+00  E=-4.515321D-01

 Vector   27  Occ=2.000000D+00  E=-4.348648D-01

 Vector   28  Occ=2.000000D+00  E=-4.232349D-01

 Vector   29  Occ=2.000000D+00  E=-4.101788D-01

 Vector   30  Occ=2.000000D+00  E=-3.905722D-01

 Vector   31  Occ=2.000000D+00  E=-3.828594D-01

 Vector   32  Occ=2.000000D+00  E=-3.580952D-01

 Vector   33  Occ=2.000000D+00  E=-2.785193D-01

 Vector   34  Occ=2.000000D+00  E=-2.334982D-01

 Vector   35  Occ=0.000000D+00  E=-3.824431D-02

 Vector   36  Occ=0.000000D+00  E=-5.000838D-03

 Vector   37  Occ=0.000000D+00  E= 1.144534D-01

 Vector   38  Occ=0.000000D+00  E= 1.297764D-01

 Vector   39  Occ=0.000000D+00  E= 1.537991D-01

 Vector   40  Occ=0.000000D+00  E= 1.752357D-01

 Vector   41  Occ=0.000000D+00  E= 1.803192D-01

 Vector   42  Occ=0.000000D+00  E= 1.953641D-01

 Vector   43  Occ=0.000000D+00  E= 2.049360D-01

 Vector   44  Occ=0.000000D+00  E= 2.121774D-01

 Vector   45  Occ=0.000000D+00  E= 2.216223D-01

 Vector   46  Occ=0.000000D+00  E= 2.436774D-01

 Vector   47  Occ=0.000000D+00  E= 2.463985D-01

 Vector   48  Occ=0.000000D+00  E= 2.645835D-01

 Vector   49  Occ=0.000000D+00  E= 3.122634D-01

 Vector   50  Occ=0.000000D+00  E= 3.191104D-01

 Vector   51  Occ=0.000000D+00  E= 3.516864D-01

 Vector   52  Occ=0.000000D+00  E= 3.821391D-01

 Vector   53  Occ=0.000000D+00  E= 4.064458D-01

 Vector   54  Occ=0.000000D+00  E= 4.310362D-01

 Vector   55  Occ=0.000000D+00  E= 4.621134D-01

 Vector   56  Occ=0.000000D+00  E= 4.916452D-01

 Vector   57  Occ=0.000000D+00  E= 5.044164D-01

     Multipole analysis of the density
     ---------------------------------

     L   x y z        total         alpha         beta         nuclear
     -   - - -        -----         -----         ----         -------
     0   0 0 0     -0.000000    -34.000000    -34.000000     68.000000

     1   1 0 0     -0.153951     -0.076976     -0.076976      0.000000
     1   0 1 0     -0.447179     -0.223589     -0.223589     -0.000000
     1   0 0 1     -0.000131     -0.000066     -0.000066     -0.000000

     2   2 0 0    -37.602407   -246.856567   -246.856567    456.110728
     2   1 1 0     -0.379646    -85.870358    -85.870358    171.361070
     2   1 0 1     -0.004463      0.068387      0.068387     -0.141236
     2   0 2 0    -37.636317   -383.121225   -383.121225    728.606134
     2   0 1 1      0.004224     -0.095165     -0.095165      0.194554

 Total times  cpu:       36.5s     wall:       82.4s
